% Model:              517_IH_ComsolLab_HeadModel.mph
% Version:            COMSOL 5.6.0.401
% Date:               Jan 27 2022, 12:13
% Dimension:          3
% Nodes:              3802
% Expressions:        1
% Description:        Electric potential
% Length unit:        m
% X                       Y                        Z                        V (V) @ Refinement level=3
0.02676903857413965       0.09635039405443091      0                        0
0.02438567013401917       0.08663327538472035      0                        0.2041576876819229
0.037798561367480256      0.09078092744816693      0.01816843334466359      0
0.017945225861092835      0.09688812324831214      0.01704876658923588      0
0.017198899465531818      0.08672822998229408      0.01680511771196011      0.20397411217698116
0.035470617379965284      0.08065343583388816      0.018353707823570507     0.20396312524390628
-0.016517258527418973     0.08697065142399624      0.01622608891951929      0.2036144724257835
-0.01786187157658611      0.0968520298933567       0.017338911422516957     0
-0.020863822454066927     0.09084622775289898      0.03621689958670651      0
5.294106276211316E-18     0.08645931675806084      0.024995507035224875     0.20434156044339424
-0.01899653649594946      0.08140873064806589      0.03334291792013288      0.20406466856752412
5.891290445590431E-18     0.09621207436613033      0.02726205542132216      0
0.019566354441230626      0.08103363699985852      0.03392207907035322      0.20441373914828925
0.023723565695723654      0.08933608938634108      0.03816091670592259      0
0.045711696008972784      0.0829263891831588       0.03215050271809991      0
0.04135821269404668       0.07190386513036327      0.03491894073520168      0.20360293687020817
0.04140181863309672       0.07760425647336545      0.04757592659200958      0
5.51091059616309E-18      0.09000000000000001      0                        0.20475285941988555
6.123233995736767E-18     0.10000000000000002      0                        0
0.016780296667483485      0.08681482332420043      -0.01678118276341417     0.2039220124145687
0.018652483694449162      0.09648228316818554      -0.018527112205693908    0
0.03694409642274772       0.09063944702084631      -0.020484735372025678    0
0.034112957046858815      0.08113755300773498      -0.018788391454197577    0.20423089648845674
-0.016980534960242235     0.08680543163479015      -0.016627641779932718    0.20387223884488453
-0.018143466392812547     0.09662958926568405      -0.01826299826419762     0
-0.026293360801670582     0.09648127428725417      0                        0
-0.024451673686871126     0.08661467161583776      0                        0.20434794520847535
-0.03403826413851416      0.0812986935590552       0.018218644297191278     0.20451132694364751
-0.03681111502706607      0.09094092921090947      0.019356890368043733     0
-0.042451986523824925     0.08025833848596094      0.04190975952751235      0
-0.03780928932755064      0.07196907968367904      0.03861229350906033      0.2046402389741235
-0.034104166678738466     0.0811829208497331       -0.018607503256880004    0.2041263519960648
-0.03699297064966091      0.09066465856715904      -0.02028397913166459     0
0.050143159956462444      0.08651957979799116      0                        0
0.04561471182385102       0.07758398732612817      0                        0.20431932786896342
0.05527041665557257       0.06898671112824042      0.01691197003391726      0.20378229790812905
0.05761746064869501       0.07994552378734332      0.016998277994061894     0
0.06002269389786698       0.06997194903353957      0.03874535540798031      0
0.023391174674228955      0.06980834077258438      0.051765321460785364     0.20429033940772492
-0.01923606516026081      0.07015557898286567      0.05299215540746664      0.2044313031344896
-0.02133325285423208      0.07821551850121115      0.058542505824777415     0
4.713896495334861E-18     0.0769837719515024       0.046620525546187716     0.2049509436329419
5.250775647631623E-18     0.08575167389140148      0.05144530707957799      0
0.02526854294697609       0.07510474018876098      0.06099818635431336      0
0.061548408815563616      0.05594458904721363      0.034380173481392405     0.20336252146265896
0.04769720618288965       0.054573775229613174     0.0533542836099837       0.20413038924752988
0.06746545229855425       0.05360319473760742      0.050745544238619045     0
0.04848418527709269       0.061361733592069034     0.06232191772235912      0
5.3080860478287424E-18    0.08668762375444804      -0.02419173658100797     0.20419723645826837
5.898289775200602E-18     0.09632638209330592      -0.026855325283864962    0
-0.018763401429261518     0.08159774417985542      -0.03301125431672143     0.20449778714322567
-0.02044780299652081      0.09074214717198184      -0.03671171583069725     0
0.018734126188836506      0.08122407231517559      -0.03393644932045597     0.20439156471649336
0.020815286399564478      0.0904243277260229       -0.037284913938494146    0
0.058821778825564684      0.077596797644908        -0.02277576192033001     0
0.053861710961171504      0.06919175344106121      -0.020283425452487378    0.2045966713889151
0.039102886458681735      0.07113524397722851      -0.0388682561340179      0.2044936364109843
0.04277694498285319       0.07982730849187339      -0.042399690999784814    0
-0.039230510382040985     0.05848773502736555      0.05603705833226128      0.20462301172265732
-0.04932587495660393      0.08698814344248895      0                        0
-0.045696442441013056     0.07753587477169778      0                        0.20426264756005277
-0.053069089504133325     0.06971170749451067      0.0205900358766582       0.20440131652373536
-0.05815100889106332      0.07844979000239945      0.02154276243964332      0
-0.044720917534376306     0.06463824241397119      0.06182181777104434      0
-0.05698391560036349      0.05746924900342372      0.03937154787194851      0.204582685115438
-0.06327955817579642      0.06439173517704004      0.04300467367584533      0
-0.04156808614330393      0.08027095268149473      -0.042762932195864446    0
-0.038366987074939136     0.07183260707989866      -0.038315151870981105    0.20448687033779891
-0.05829574711845522      0.07807401574925192      -0.02249564252664693     0
-0.053255929306378624     0.0695826555364824       -0.02054409993660562     0.2047047495923939
0.0699782234211832        0.07143560976991463      0                        0
0.06407651999297344       0.06319967455753371      0                        0.20427761874958253
0.07515445891064734       0.06277934257721571      0.020262316042851978     0
0.07124469298298183       0.05253859189293033      0.016244694015855664     0.20364183823552326
0.07524058050503718       0.05430676904699644      0.037277739750972164     0
0.022807606150523383      0.05405369739228897      0.0682496219762825       0.20459278892340174
3.8531562363322304E-18    0.06292681676079906      0.06434449433611818      0.20496024108259417
-0.018909184607762013     0.05431742503991945      0.06922470711026742      0.20438183252247416
-0.02135580285680185      0.060516697889658064     0.07669197455322997      0
4.289812721268559E-18     0.07005795833141922      0.07135741683947094      0
0.02447689628797622       0.05847805090988354      0.07733821248185614      0
0.07314475001479746       0.04279191324860072      0.030310026489546615     0.2033286430949955
0.0671891024070017        0.03949689237884977      0.04500688847448797      0.20372014146442827
0.07988539218061826       0.03769736438975279      0.04687465023032191      0
0.06404321081396672       0.04087432291269136      0.06502120327298515      0
0.05727673465696159       0.033151711310877394     0.06099458749918931      0.2039096736777992
0.04189003077670087       0.0374337359617712       0.07031316187934841      0.20461490942058716
0.045250441528823855      0.04113385592220478      0.07912271126811692      0
4.770839288745878E-18     0.07791371834013727      -0.04504921711298691     0.2042990134333878
7.71976472138711E-4       0.08191729794094976      -0.04780277723435874     0.09997085517331426
0.020387477004160003      0.06968959592074325      -0.05317622590790337     0.204034425546697
5.281825707625985E-18     0.08625875985310047      -0.0505904968832364      0
-0.02027886512375212      0.06997108365753081      -0.05284709151016257     0.20417598742217982
-0.020917688234207022     0.07807035732157859      -0.05888522417905497     0
0.022827380983930275      0.07725889111276739      -0.05924503710387946     0
0.07008058329908924       0.05286417536728982      -0.019851720509715086    0.20425957180531534
0.0767245370736193        0.059851475197833424     -0.023046612060820402    0
0.05757617051949214       0.05649631345122071      -0.03991429762292933     0.20431183139281167
0.040708415666086684      0.056946289712949016     -0.05656805619681471     0.2043727956235362
0.06276315100423127       0.0636148243436372       -0.04487695399365082     0
0.04442984076316512       0.06314520373693265      -0.06355055070399517     0
-0.03838533254412134      0.04067298424205952      0.0705143573914022       0.2044158108180681
-0.05685979746707195      0.04165818736912606      0.055960332889666994     0.20419951691263233
-0.04446689914405727      0.04516405035642987      0.07734923035114254      0
-0.06950468701686713      0.07189641024008088      0                        0
-0.06394668084313027      0.06333104802374148      0                        0.20462543296968946
-0.07710666261136116      0.059814260295215395     0.021836136248749246     0
-0.06998109257413107      0.0530552673487813       0.01969226469150362      0.20444323856186888
-0.06362340391154626      0.04600856196289246      0.061929594708950986     0
-0.07210818663369366      0.03859053110964987      0.03756568020248737      0.20433940704787415
-0.07974045440823864      0.04383290210547777      0.0414745298198692       0
-0.040019702092625675     0.05739757892635248      -0.05660336896166722     0.2036612244385633
-0.04282124386702065      0.06479297873497611      -0.06299373762787921     0
-0.05700272584230379      0.05722364184410743      -0.03970068085870153     0.20430739084753452
-0.06197290618120706      0.06446019515665784      -0.04476876299185512     0
-0.07669214416688801      0.0600625538007151       -0.02260098789923736     0
-0.06972271760545978      0.05327919172124531      -0.020001759403614847    0.20462700494255429
0.08565388500102908       0.051607953392682315     0                        0
0.07808929454035368       0.044744196470187264     0                        0.20436594071931843
0.08164133732042766       0.03430558091684198      0.016056748067094805     0.20452241973070606
0.08883957239408925       0.04044255370363029      0.02172395513630878      0
2.763479274836052E-18     0.045131041484942326     0.07786634811610575      0.2044618127003926
-0.01842147043960195      0.0364459624855565       0.0802018780661917       0.20431769366491953
0.01954682026123551       0.03479857665550331      0.08066585944763754      0.20407287953084993
-0.02029418866686259      0.03954580099790933      0.08957832064616719      0
3.0648082204956483E-18    0.050052116620555205     0.08657228359993403      0
0.02088862372366614       0.03847681543683024      0.08990661862605666      0
0.07913471328384562       0.021712314882763154     0.03696312400102688      0.2040488477815736
0.09005851962465629       0.019784894469107125     0.038704276170233365     0
0.07778109673491156       0.020736206861407345     0.059330520945928465     0
0.0685917251572621        0.018856024969332797     0.055132799333124        0.2042537960754091
0.053105092900996506      0.018971719948133275     0.07014216242878554      0.20375069941337162
0.05943964499816282       0.020752369872202418     0.07769342151803901      0
0.03664865980245188       0.018397138497971737     0.08011504870978108      0.20400257677497846
0.04011270209935153       0.020649655536892613     0.08924439958056955      0
3.928908287977025E-18     0.06416394164770582      -0.0631109148310197      0.2042552447497544
0.020935609508872948      0.05351427950330116      -0.0692670350436234      0.2044894074900285
4.329082242382258E-18     0.07069927828001239      -0.07072207611597119     0
-0.020137522744108564     0.054203645727175884     -0.0689669846202755      0.20424742770364682
-0.02017679713431412      0.06089215296110828      -0.07671403108403135     0
0.022822505939154157      0.059237187862904904     -0.07726634970510894     0
0.09000794287397279       0.038108192763746294     -0.021126662393213196    0
0.08131132843087246       0.03393583153155978      -0.01835285283187293     0.2036590427756893
0.07188264804981974       0.03854049240706431      -0.03804622654570051     0.20404306533665875
0.05724949977839468       0.03983372992732296      -0.056883817867656214    0.20434929242683125
0.07932960480639611       0.043128220814233474     -0.04297406625698501     0
0.03894249394681009       0.038772504896157196     -0.07127534657425474     0.20379392962817305
0.06318462491413356       0.04417766627422181      -0.06368702361567655     0
0.04277007655243234       0.04230698001259481      -0.0798801602020989      0
-0.03490060470005818      0.019441126181694295     0.0806473211232569       0.2044998551620494
-0.053885107061019955     0.02105868234386692      0.06894147615885902      0.2045966077819364
-0.03611003977201861      0.018638038740569973     0.08563347174350502      0.10141051133498681
-0.039460477022895145     0.021670601451648917     0.08929308923902991      0
-0.06978556474133245      0.020960690227188973     0.05282636102300745      0.2044257514203808
-0.06003814713697823      0.022838017123698953     0.07664101944922308      0
-0.08148267711445359      0.033545229028108525     0.01831095136014098      0.20432052456149358
-0.08602268663093234      0.05099086056069769      0                        0
-0.07791912838546862      0.04503985951950338      0                        0.20422830616059293
-0.09031812061279497      0.03817564200716116      0.019627976113540026     0
-0.07820050653462558      0.02319696164721039      0.05784964777823488      0
-0.08147571060942216      0.018827923162392648     0.03327488377261046      0.2038644181627105
-0.09059732408320202      0.020622886564680518     0.03697054799030689      0
-0.0902580270726604       0.03799052987917762      -0.020253596926230612    0
-0.08134759812923407      0.03379647073546914      -0.018449033699118603    0.20425545799525177
-0.038472039236309936     0.039800472203044        -0.07096354422810738     0.20425347433280508
-0.0410479468989124       0.04643379605906209      -0.07847909682794203     0
-0.056834306393282796     0.04077131989048666      -0.05663533429919933     0.20437167517712065
-0.07145722449842477      0.03898596530567459      -0.038392181185320264    0.20473160618636946
-0.06108891681729295      0.045912509034482824     -0.06449950198449908     0
-0.0786977713386013       0.04394589369978916      -0.04330611057650016     0
0.08699668598637932       0.016846672421594235     0.01574059260977208      0.20391819919929183
0.08672447798514117       0.02405926906047083      0                        0.20369354022433428
0.09621247747550173       0.027260632579115138     0                        0
0.09080410391162236       0.022957461807213517     -0.00835143879069397     0.11671997264659041
0.09677040785583586       0.017709282234754545     0.01794072144995827      0
0.08646834534711678       0                        0.024964252385574        0.20432660424466353
0.0963302050771967        0                        0.026841607432534356     0
1.4812294786130947E-18    0.02419031315223923      0.08668802093002131      0.20431517345437925
-0.01722570938672141      0.017225709386721414     0.08664034783083709      0.20383690199766774
0.017038642372501474      0.017038642372501474     0.0867142971614485       0.20408144075239856
-0.01878016384567198      0.018780163845671983     0.09640856233685592      0
1.6207192674957418E-18    0.02646835428180843      0.09643341907984117      0
0.018725931382391123      0.018725931382391123     0.09642965823710029      0
0.07709904810763381       0                        0.046429641324438505     0.20460007900469812
0.0860985102123618        0                        0.05086273164117294      0
0.06301608988447693       0                        0.0642570698444473       0.2043329823658919
0.07050534712747555       0                        0.07091541341766118      0
0.044965715775236184      0                        0.07796194127432662      0.20406621451696577
0.04755740926097455       -6.524847949404782E-4    0.08231241729052413      0.09542889416649672
0.050265027089416464      0                        0.08644883228494134      0
0.024002168299532674      0                        0.08674029698043494      0.2042316632568046
0.026496519612499214      0                        0.09642568487595388      0
-0.026649890230622697     3.2636702768560412E-18   0.09638341403225602      0
2.8192961803814898E-18    0.046042600729359576     -0.0773308125605426      0.20445305366552946
0.018995339494857013      0.033852659184561644     -0.08119836539985913     0.20464016236936453
-0.019068859147186517     0.03518380086063088      -0.08061314264947268     0.20356425759480115
-0.03537576686064936      0.030346768139279206     -0.08847388757436747     0
3.09045471522535E-18      0.05047095566455642      -0.08632876226751167     0
-0.02025599687791891      0.041200363915503954     -0.08883819338388069     0
-0.009396554523877783     0.03262050220237102      -0.08746870763660554     0.12086673761999965
0.020704284239026063      0.03704645247010752      -0.09054773864393127     0
0.08680834629624268       0.01689888802545504      -0.016695466355114024    0.20362130988758767
0.09648504100819648       0.01852072853533283      -0.01864455620729968     0
0.08153114829054318       0.018937649196422542     -0.033076234691069316    0.20371108318491918
0.09033748224506713       0.020481641728074783     -0.03767813230170745     0
0.08797403981588856       0.009464229531543331     -0.03138311595264044     0.11985251330018397
0.06950069481225474       0.02056098935322068      -0.05335634111734589     0.20452062210750968
0.05312809361267808       0.020316764178291133     -0.06974693371329109     0.20446570360532504
0.07738344351735306       0.02203952007114174      -0.05938065530482443     0
0.03416407276982161       0.018887572089592738     -0.08109300680292211     0.2042155340485419
0.059049711891946154      0.022017110157733326     -0.07764263252737115     0
0.03727498041855824       0.0204135513805602       -0.0905199577708106      0
-0.024531211687853792     3.004206987273629E-18    0.0865921808912468       0.20418911807919662
-0.06414108067599285      7.85501691437068E-18     0.06313414948526096      0.20439991143648314
-0.04603551289309499      5.6377243511635484E-18   0.07733503232622925      0.20446899290992396
-0.05090085044320651      6.233556356915098E-18    0.08607597931746847      0
-0.04074915188660693      -0.015586171307276733    0.08998098623877417      0
-0.07793199379043986      9.543916674663356E-18    0.04501759619707288      0.2043455973886332
-0.07140627199177088      8.74474624337675E-18     0.0700081606553063       0
-0.08667636379595918      0.024232053411808563     0                        0.20407205719600258
-0.08687233998284338      0.016730034229204802     0.01653186319187618      0.2038381453665956
-0.09647097259351634      0.026331136824053115     0                        0
-0.09683834436487411      0.01782589647444062      0.017452004914982833     0
-0.0866694117612018       1.0613941769733976E-17   0.024256909452107817     0.20422633810736188
-0.08674039845065444      1.0622635131936E-17      0.04976022109501132      0
-0.09649216914100381      1.1816882608131533E-17   0.026253346168974755     0
-0.09649245810846231      0.01862377439202446      -0.01850298774743206     0
-0.08677077347147177      0.01705714163834625      -0.01672981740163137     0.20370835927879496
-0.08135198510081855      0.01897258695810428      -0.03349470800400222     0.2041018237340173
-0.0345881288529692       0.018971272449143737     -0.08089346181312035     0.20317178389081425
-0.0902670200140037       0.02106937860388773      -0.03752261162335981     0
-0.06966376379321242      0.02065664925542859      -0.05310614706134977     0.20446602960904842
-0.05312048330643526      0.020963786712087137     -0.06956100847443812     0.2042716323999801
-0.054292034818168224     0.02465275144374123      -0.08027837069569815     0
-0.03822292850596746      0.015577537202763581     -0.09108429102278955     0
-0.0761586953265544       0.02392064961684221      -0.06023002281308991     0
0.09000000000000001       0                        0                        0.20428581021878273
0.10000000000000002       0                        0                        0
0.09162040324529813       -0.014928541124337905    0.014830536524260288     0.11716662301900384
0.0868981351386617        -0.01668912248177878     0.01643737510100304      0.2034471339372605
0.09654927133440551       -0.018461113595168558    0.018369145043295496     0
0.08137211528289723       -0.019074410693265396    0.03338780782099247      0.20413687996454272
0.09037553847898067       -0.02086555792125324     0.03737499882634267      0
-0.017325678481196424     -0.017325678481196417    0.08660047188285071      0.20448150391975056
5.51091059616309E-18      0                        0.09000000000000001      0.20481739740842111
6.123233995736767E-18     0                        0.10000000000000002      0
0.06976675078061255       -0.020686218289425292    0.052959237705976735     0.20465890965789543
0.07745998194866706       -0.02290483552454769     0.05895184226218545      0
0.054000381295738545      -0.020890107368420292    0.06890255607777353      0.2045198526246765
0.05932866614493014       -0.022329299480634918    0.07734023376075055      0
0.03501692338501019       -0.018784759350003778    0.08075238629793409      0.20458358726814338
0.038833390432948554      -0.020735967845541714    0.08978857068130021      0
0.017138697061416974      -0.017138697061416977    0.08667485290483022      0.20395029422858937
0.018819744091451165      -0.018819744091451176    0.0963931245715408       0
-0.018873955976114253     -0.01887395597611425     0.09637192314996836      0
1.503668093350726E-18     0.024556763540273627     -0.08658493892728264     0.20405109028175714
-0.01729973853920174      0.017299738539201744     -0.08661084281399482     0.20426839567455643
0.01727961004838572       0.01727961004838572      -0.08661887873409269     0.20384520565165018
-0.018765176198447316     0.01876517619844732      -0.09641439894788774     0
1.6307682113267292E-18    0.026632465988759103     -0.09638822958408579     0
0.018691594559528287      0.018691594559528287     -0.09644298100766291     0
0.08658744879269106       0                        -0.024547911224588798    0.20394010420675576
0.09642998117005588       0                        -0.02648087795158447     0
0.08678378347700216       -0.01687033842255706     -0.01685130876001033     0.2038709022971932
0.07756896209681508       0                        -0.045640256893420036    0.20417958348547852
0.08636956393600724       0                        -0.050401104275642365    0
0.0635569199504297        0                        -0.06372219314218215     0.20467535968250775
0.045423779038314335      0                        -0.07769593343338178     0.20448223932309859
0.07020163613400711       0                        -0.0712160748859506      0
0.02431726410505515       0                        -0.08665249906382752     0.20421687759753168
0.04951217640088499       0                        -0.08688223197379046     0
0.026235176580418268      0                        -0.0964971103260765      0
0.09637299505302799       -0.019280815700246295    -0.018452532900449854    0
0.08659978385238855       -0.024504355158283146    0                        0.20370573191043698
0.09075695370006866       -0.023375763321408102    -0.008426406114362805    0.11543660857884215
-0.03683050020510079      -0.019163766740216574    0.0798515140681042       0.203164166369527
-0.03762662753385456      -0.03132151053790578     0.08719632949873773      0
-0.01913530390239498      -0.03550873990502559     0.08045476701178267      0.20400687518612204
-0.05570713593451036      -0.019537507913734695    0.0679337971152411       0.2044499668838034
-0.07081008870519409      -0.019517038816960635    0.052009773440958175     0.2043657569788226
-0.05851777946307977      -0.024039476695118717    0.07744529066983484      0
-0.08168862970018792      -0.01813798717537199     0.0331357993555553       0.20417220012908818
-0.07805707894155758      -0.023139534686174985    0.05806594838301323      0
-0.09000000000000001      1.102182119232618E-17    0                        0.20474334452449072
-0.10000000000000002      1.2246467991473534E-17   0                        0
-0.08697579883984928      -0.01620196941745369     0.01651383066299186      0.20375851389524316
-0.09128302635202362      -0.019826365664221246    0.035697679540333635     0
-0.09671145304753566      -0.017735324711657       0.01823055421007265      0
-0.09624790173598002      1.1786968478561692E-17   -0.02713528200446183     0
-0.08665799550888792      1.0612543682048529E-17   -0.024297667222335617    0.20432106723220403
-0.07797557785853221      9.549254183611671E-18    -0.04494206559205484     0.2043865901157558
-0.024374216037409517     2.9849805651939645E-18   -0.08663649831214543     0.20416271792841648
-0.026443384801757744     3.2383806556094387E-18   -0.09644026830919955     0
-0.04577409438995775      5.605709817853058E-18    -0.07749005577884926     0.20457576972457445
-0.05009249339827572      6.134561170150827E-18    -0.08654892577685686     0
-0.06416239365147113      7.857627001090657E-18    -0.06311248866275125     0.20431942785652582
-0.08580560819381079      1.0508156342344228E-17   -0.051355301666391046    0
-0.07023348333095147      8.601121055421871E-18    -0.07118466807144129     0
0.09633264105491983       -0.026832862575683084    0                        0
0.09029842489036001       -0.037808452314479796    0.020413608105960147     0
0.0812505124584595        -0.03408886457008671     0.01833858057647878      0.20436689858023618
0.07165269860046904       -0.039361407789746596    0.03763735325550431      0.20477106210856724
0.07953631359354962       -0.043207763604510965    0.04250957520659595      0
-4.495646944549334E-18    -0.024473162099632205    0.08660860317637138      0.20420989798120107
-4.910893447260195E-18    -0.026733658775081656    0.09636021552846014      0
0.057260948558644574      -0.04153558272162057     0.055641523506637355     0.20482338048895252
0.06355251089799283       -0.04492850348832736     0.06278939347421555      0
0.03919844812078695       -0.0410854152818942      0.06982456814070725      0.20508932223167028
0.04381020551913378       -0.0445464896872923      0.07807865360590707      0
0.019190196882354554      -0.036587003550734874    0.07995703543025456      0.20468867862315718
0.020938333112020494      -0.03993290376907551     0.0892577694268674       0
-0.021305857264827404     -0.042879901573271005    0.08779165385887998      0
-0.010289470919647523     -0.043457754246999686    0.08268003967702553      0.11799490604585337
5.51091059616309E-18      0                        -0.09000000000000001     0.20469449428408681
6.123233995736767E-18     0                        -0.10000000000000002     0
0.08114166760211866       -0.0341283887109284      -0.01874254152304496     0.2036990551336397
0.08118721097693646       -0.01890139940294445     -0.03393190054206781     0.20440083117857408
0.09030480821324356       -0.02120120389051971     -0.03735706850332226     0
0.07738866201042062       -0.02271360827521151     -0.059119260747721857    0
0.06950822618221283       -0.020834552687707546    -0.05324028462832897     0.2043667298998701
0.053319356936614645      -0.020615149348717828    -0.06951303326136721     0.20414486061636292
0.03377773090719752       -0.01881569633905885     -0.08127136313633039     0.2040780013303928
0.057997533302036386      -0.022242935562668188    -0.07836796506503262     0
0.01720352437718627       -0.017203524377186277    -0.08664916328509535     0.20380876086300265
0.036063417718956665      -0.020122001702000625    -0.09107433749378982     0
0.018659510333368177      -0.018659510333368184    -0.09645540600836149     0
0.09015371351782628       -0.03818911012528852     -0.02034452768643933     0
-8.418409434157622E-18    -0.045827686480808705    0.0774583722917753       0.20397786890606145
0.07764385611153321       -0.045512734732510406    0                        0.2044343705521909
0.06979015948577698       -0.05328054364121719     0.019761510778434056     0.20484571291907022
-0.04145277958100825      -0.039582095482102335    0.06938965904408294      0.2038912664203266
-0.021153055552264013     -0.05462721796311136     0.06832580258155448      0.20405628384360705
-0.043604402183835295     -0.04760345514383173     0.07637124569207669      0
-0.017223659909960113     -0.017223659909960106    -0.08664116272657049     0.20399566234303504
-0.018733101472085508     -0.018733101472085505    -0.09642687290622412     0
-0.07246866198982152      -0.037945309776630444    0.037529275177660346     0.2041898113473421